[Molden Format]
[FREQ]
    0.00
    0.00
    0.00
   72.79
   72.79
   72.79
  155.07
  155.07
  155.07
  160.40
  160.40
  160.40
  487.47
  487.47
  487.47
[FR-COORD]
   O           3.96230        0.00000        3.96230
   O           3.96230        3.96230        0.00000
   O           0.00000        3.96230        3.96230
   Zr          3.96230        3.96230        3.96230
   Ba          0.00000        0.00000        0.00000
[FR-NORM-COORD]
 vibration     1
   0.39777  -0.20362   0.01797
   0.39777  -0.20362   0.01797
   0.39777  -0.20362   0.01797
   0.39777  -0.20362   0.01797
   0.39777  -0.20362   0.01797
 vibration     2
   0.20420   0.39408  -0.05482
   0.20420   0.39408  -0.05482
   0.20420   0.39408  -0.05482
   0.20420   0.39408  -0.05482
   0.20420   0.39408  -0.05482
 vibration     3
  -0.00913  -0.05696  -0.44348
  -0.00913  -0.05696  -0.44348
  -0.00913  -0.05696  -0.44348
  -0.00913  -0.05696  -0.44348
  -0.00913  -0.05696  -0.44348
 vibration     4
   0.39976   0.28965   0.00777
   0.39976   0.49166   0.00458
   0.23551   0.49166   0.00777
   0.03851   0.04736   0.00075
  -0.14616  -0.17976  -0.00284
 vibration     5
   0.49030  -0.23435  -0.05448
   0.49030  -0.39779  -0.03209
   0.28885  -0.39779  -0.05448
   0.04723  -0.03832  -0.00525
  -0.17926   0.14544   0.01992
 vibration     6
   0.03739  -0.02379   0.63133
   0.03739  -0.04038   0.37194
   0.02203  -0.04038   0.63133
   0.00360  -0.00389   0.06081
  -0.01367   0.01476  -0.23083
 vibration     7
  -0.00000  -0.00000   0.05872
   0.00000  -0.70466   0.00000
   0.00000   0.70466  -0.05872
  -0.00000   0.00000   0.00000
   0.00000  -0.00000  -0.00000
 vibration     8
   0.70711   0.00000   0.00000
  -0.70711  -0.00000   0.00000
   0.00000   0.00000  -0.00000
  -0.00000  -0.00000   0.00000
   0.00000   0.00000   0.00000
 vibration     9
  -0.00000  -0.00000   0.70466
   0.00000   0.05872  -0.00000
  -0.00000  -0.05872  -0.70466
   0.00000   0.00000   0.00000
  -0.00000  -0.00000  -0.00000
 vibration    10
   0.39669  -0.10360   0.00188
   0.39669  -0.34135   0.00057
   0.12039  -0.34135   0.00188
  -0.45498   0.39151  -0.00216
   0.19578  -0.16847   0.00093
 vibration    11
   0.04721   0.01752   0.51800
   0.04721   0.05772   0.15721
   0.01433   0.05772   0.51800
  -0.05415  -0.06620  -0.59412
   0.02330   0.02849   0.25565
 vibration    12
   0.33807   0.11911  -0.07455
   0.33807   0.39247  -0.02262
   0.10261   0.39247  -0.07455
  -0.38776  -0.45014   0.08550
   0.16685   0.19369  -0.03679
 vibration    13
   0.27113   0.15056  -0.00485
   0.27113  -0.04498   0.01624
  -0.90746  -0.04498  -0.00485
   0.04780  -0.00793  -0.00086
   0.01080  -0.00179  -0.00019
 vibration    14
  -0.00478  -0.00274  -0.27483
  -0.00478   0.00082   0.91987
   0.01600   0.00082  -0.27483
  -0.00084   0.00014  -0.04845
  -0.00019   0.00003  -0.01094
 vibration    15
   0.04499  -0.90760   0.00003
   0.04499   0.27117  -0.00009
  -0.15058   0.27117   0.00003
   0.00793   0.04780   0.00000
   0.00179   0.01080   0.00000
